/*--------------------------------*- C++ -*----------------------------------*\
  =========                 |
  \\      /  F ield         | OpenFOAM: The Open Source CFD Toolbox
   \\    /   O peration     | Website:  https://openfoam.org
    \\  /    A nd           | Version:  8
     \\/     M anipulation  |
\*---------------------------------------------------------------------------*/
FoamFile
{
    version     2.0;
    format      ascii;
    class       volScalarField;
    object      p_rgh;
}
// * * * * * * * * * * * * * * * * * * * * * * * * * * * * * * * * * * * * * //

#include        "include/initialConditions"

dimensions      [1 -1 -2 0 0 0 0];

internalField   uniform $pressure;

boundaryField
{
    inlet
    {
        type            p_rghJumpAMI;
        patchType       cyclicAMI;
        jumpTable       constant -0.4905;

    }
    outlet
    {
        type            uniformJumpAMI;
        patchType       cyclicAMI;
    }
    fixedWalls
    {
        type            fixedFluxPressure;
    }
    atmosphere
    {
        type            totalPressure;
        p0              uniform 0;
    }
}

// ************************************************************************* //
